c2h4                                                                            
GAUSSIAN              8 MOL ORBITALS    178 PRIMITIVES        6 NUCLEI
  C    1    (CENTRE  1)   0.00000000  0.00000000 -1.26517155  CHARGE =  6.0
  C    2    (CENTRE  2)   0.00000000  0.00000000  1.26517155  CHARGE =  6.0
  H    3    (CENTRE  3)   0.00000000 -1.75536647  2.32833139  CHARGE =  1.0
  H    4    (CENTRE  4)   0.00000000  1.75536647 -2.32833139  CHARGE =  1.0
  H    5    (CENTRE  5)   0.00000000 -1.75536647 -2.32833139  CHARGE =  1.0
  H    6    (CENTRE  6)   0.00000000  1.75536647  2.32833139  CHARGE =  1.0
CENTRE ASSIGNMENTS    1  1  1  1  1  1  1  1  1  1  1  1  1  1  1  1  1  1  1  1
CENTRE ASSIGNMENTS    1  1  1  1  1  1  1  1  1  1  1  1  1  1  1  1  1  1  1  1
CENTRE ASSIGNMENTS    1  1  1  1  1  1  1  1  1  1  1  1  1  1  1  2  2  2  2  2
CENTRE ASSIGNMENTS    2  2  2  2  2  2  2  2  2  2  2  2  2  2  2  2  2  2  2  2
CENTRE ASSIGNMENTS    2  2  2  2  2  2  2  2  2  2  2  2  2  2  2  2  2  2  2  2
CENTRE ASSIGNMENTS    2  2  2  2  2  2  2  2  2  2  3  3  3  3  3  3  3  3  3  3
CENTRE ASSIGNMENTS    3  3  3  3  3  3  3  4  4  4  4  4  4  4  4  4  4  4  4  4
CENTRE ASSIGNMENTS    4  4  4  4  5  5  5  5  5  5  5  5  5  5  5  5  5  5  5  5
CENTRE ASSIGNMENTS    5  6  6  6  6  6  6  6  6  6  6  6  6  6  6  6  6  6
TYPE ASSIGNMENTS      1  1  1  1  1  1  1  1  1  1  1  1  1  1  1  1  1  1  2  2
TYPE ASSIGNMENTS      2  3  3  3  4  4  4  2  3  4  2  3  4  5  6  7  8  9 10  5
TYPE ASSIGNMENTS      6  7  8  9 10 11 12 13 14 15 16 17 18 19 20  1  1  1  1  1
TYPE ASSIGNMENTS      1  1  1  1  1  1  1  1  1  1  1  1  1  2  2  2  3  3  3  4
TYPE ASSIGNMENTS      4  4  2  3  4  2  3  4  5  6  7  8  9 10  5  6  7  8  9 10
TYPE ASSIGNMENTS     11 12 13 14 15 16 17 18 19 20  1  1  1  1  1  2  3  4  2  3
TYPE ASSIGNMENTS      4  5  6  7  8  9 10  1  1  1  1  1  2  3  4  2  3  4  5  6
TYPE ASSIGNMENTS      7  8  9 10  1  1  1  1  1  2  3  4  2  3  4  5  6  7  8  9
TYPE ASSIGNMENTS     10  1  1  1  1  1  2  3  4  2  3  4  5  6  7  8  9 10
EXPONENTS  8.2360000E+03 1.2350000E+03 2.8080000E+02 7.9270000E+01 2.5590000E+01
EXPONENTS  8.9970000E+00 3.3190000E+00 3.6430000E-01 8.2360000E+03 1.2350000E+03
EXPONENTS  2.8080000E+02 7.9270000E+01 2.5590000E+01 8.9970000E+00 3.3190000E+00
EXPONENTS  3.6430000E-01 9.0590000E-01 1.2850000E-01 1.8710000E+01 4.1330000E+00
EXPONENTS  1.2000000E+00 1.8710000E+01 4.1330000E+00 1.2000000E+00 1.8710000E+01
EXPONENTS  4.1330000E+00 1.2000000E+00 3.8270000E-01 3.8270000E-01 3.8270000E-01
EXPONENTS  1.2090000E-01 1.2090000E-01 1.2090000E-01 1.0970000E+00 1.0970000E+00
EXPONENTS  1.0970000E+00 1.0970000E+00 1.0970000E+00 1.0970000E+00 3.1800000E-01
EXPONENTS  3.1800000E-01 3.1800000E-01 3.1800000E-01 3.1800000E-01 3.1800000E-01
EXPONENTS  7.6100000E-01 7.6100000E-01 7.6100000E-01 7.6100000E-01 7.6100000E-01
EXPONENTS  7.6100000E-01 7.6100000E-01 7.6100000E-01 7.6100000E-01 7.6100000E-01
EXPONENTS  8.2360000E+03 1.2350000E+03 2.8080000E+02 7.9270000E+01 2.5590000E+01
EXPONENTS  8.9970000E+00 3.3190000E+00 3.6430000E-01 8.2360000E+03 1.2350000E+03
EXPONENTS  2.8080000E+02 7.9270000E+01 2.5590000E+01 8.9970000E+00 3.3190000E+00
EXPONENTS  3.6430000E-01 9.0590000E-01 1.2850000E-01 1.8710000E+01 4.1330000E+00
EXPONENTS  1.2000000E+00 1.8710000E+01 4.1330000E+00 1.2000000E+00 1.8710000E+01
EXPONENTS  4.1330000E+00 1.2000000E+00 3.8270000E-01 3.8270000E-01 3.8270000E-01
EXPONENTS  1.2090000E-01 1.2090000E-01 1.2090000E-01 1.0970000E+00 1.0970000E+00
EXPONENTS  1.0970000E+00 1.0970000E+00 1.0970000E+00 1.0970000E+00 3.1800000E-01
EXPONENTS  3.1800000E-01 3.1800000E-01 3.1800000E-01 3.1800000E-01 3.1800000E-01
EXPONENTS  7.6100000E-01 7.6100000E-01 7.6100000E-01 7.6100000E-01 7.6100000E-01
EXPONENTS  7.6100000E-01 7.6100000E-01 7.6100000E-01 7.6100000E-01 7.6100000E-01
EXPONENTS  3.3870000E+01 5.0950000E+00 1.1590000E+00 3.2580000E-01 1.0270000E-01
EXPONENTS  1.4070000E+00 1.4070000E+00 1.4070000E+00 3.8800000E-01 3.8800000E-01
EXPONENTS  3.8800000E-01 1.0570000E+00 1.0570000E+00 1.0570000E+00 1.0570000E+00
EXPONENTS  1.0570000E+00 1.0570000E+00 3.3870000E+01 5.0950000E+00 1.1590000E+00
EXPONENTS  3.2580000E-01 1.0270000E-01 1.4070000E+00 1.4070000E+00 1.4070000E+00
EXPONENTS  3.8800000E-01 3.8800000E-01 3.8800000E-01 1.0570000E+00 1.0570000E+00
EXPONENTS  1.0570000E+00 1.0570000E+00 1.0570000E+00 1.0570000E+00 3.3870000E+01
EXPONENTS  5.0950000E+00 1.1590000E+00 3.2580000E-01 1.0270000E-01 1.4070000E+00
EXPONENTS  1.4070000E+00 1.4070000E+00 3.8800000E-01 3.8800000E-01 3.8800000E-01
EXPONENTS  1.0570000E+00 1.0570000E+00 1.0570000E+00 1.0570000E+00 1.0570000E+00
EXPONENTS  1.0570000E+00 3.3870000E+01 5.0950000E+00 1.1590000E+00 3.2580000E-01
EXPONENTS  1.0270000E-01 1.4070000E+00 1.4070000E+00 1.4070000E+00 3.8800000E-01
EXPONENTS  3.8800000E-01 3.8800000E-01 1.0570000E+00 1.0570000E+00 1.0570000E+00
EXPONENTS  1.0570000E+00 1.0570000E+00 1.0570000E+00
MO  1                     OCC NO =   2.00000000 ORB. ENERGY = -11.23161849
  2.31110216E-01  4.30841990E-01  7.28198861E-01  1.09472142E+00  1.34499175E+00
  1.13606054E+00  4.28480238E-01 -2.12057261E-03 -7.40271140E-05 -1.38602114E-04
 -2.35981959E-04 -3.65028208E-04 -4.80729309E-04 -4.99508545E-04 -3.17415257E-04
  2.12724324E-04  1.94304084E-02  3.82036043E-04  0.00000000E+00  0.00000000E+00
  0.00000000E+00  0.00000000E+00  0.00000000E+00  0.00000000E+00 -2.30221443E-04
 -2.15847236E-04 -1.53696091E-04  0.00000000E+00  0.00000000E+00  1.56850824E-04
  0.00000000E+00  0.00000000E+00 -2.30748040E-05 -7.53741366E-04  4.25338388E-04
  3.28402977E-04  0.00000000E+00  0.00000000E+00  0.00000000E+00 -4.71811561E-06
  5.15560042E-05 -4.68378886E-05  0.00000000E+00  0.00000000E+00  0.00000000E+00
  0.00000000E+00  0.00000000E+00  1.71033564E-04  0.00000000E+00  1.99144668E-04
 -7.12245359E-04  0.00000000E+00  0.00000000E+00  0.00000000E+00  0.00000000E+00
  2.31110216E-01  4.30841990E-01  7.28198861E-01  1.09472142E+00  1.34499175E+00
  1.13606054E+00  4.28480238E-01 -2.12057261E-03 -7.40271140E-05 -1.38602114E-04
 -2.35981959E-04 -3.65028208E-04 -4.80729309E-04 -4.99508545E-04 -3.17415257E-04
  2.12724324E-04  1.94304084E-02  3.82036043E-04  0.00000000E+00  0.00000000E+00
  0.00000000E+00  0.00000000E+00  0.00000000E+00  0.00000000E+00  2.30221443E-04
  2.15847236E-04  1.53696091E-04  0.00000000E+00  0.00000000E+00 -1.56850824E-04
  0.00000000E+00  0.00000000E+00  2.30748040E-05 -7.53741366E-04  4.25338388E-04
  3.28402977E-04  0.00000000E+00  0.00000000E+00  0.00000000E+00 -4.71811561E-06
  5.15560042E-05 -4.68378886E-05  0.00000000E+00  0.00000000E+00  0.00000000E+00
  0.00000000E+00  0.00000000E+00 -1.71033564E-04  0.00000000E+00 -1.99144668E-04
  7.12245359E-04  0.00000000E+00  0.00000000E+00  0.00000000E+00  0.00000000E+00
  1.87232027E-05  3.37680672E-05  4.97909953E-05  1.85296118E-07 -6.70764095E-05
  0.00000000E+00 -4.16635783E-04  2.74477223E-04  0.00000000E+00  2.76991835E-05
  6.18935079E-05  9.79869335E-05 -1.18632085E-04  2.06451512E-05  0.00000000E+00
  0.00000000E+00  5.53745494E-04  1.87232027E-05  3.37680672E-05  4.97909953E-05
  1.85296118E-07 -6.70764095E-05  0.00000000E+00  4.16635783E-04 -2.74477223E-04
  0.00000000E+00 -2.76991835E-05 -6.18935079E-05  9.79869335E-05 -1.18632085E-04
  2.06451512E-05  0.00000000E+00  0.00000000E+00  5.53745494E-04  1.87232027E-05
  3.37680672E-05  4.97909953E-05  1.85296118E-07 -6.70764095E-05  0.00000000E+00
 -4.16635783E-04 -2.74477223E-04  0.00000000E+00  2.76991835E-05 -6.18935079E-05
  9.79869335E-05 -1.18632085E-04  2.06451512E-05  0.00000000E+00  0.00000000E+00
 -5.53745494E-04  1.87232027E-05  3.37680672E-05  4.97909953E-05  1.85296118E-07
 -6.70764095E-05  0.00000000E+00  4.16635783E-04  2.74477223E-04  0.00000000E+00
 -2.76991835E-05  6.18935079E-05  9.79869335E-05 -1.18632085E-04  2.06451512E-05
  0.00000000E+00  0.00000000E+00 -5.53745494E-04
MO  2                     OCC NO =   2.00000000 ORB. ENERGY = -11.22995693
 -2.31336589E-01 -4.31264000E-01 -7.28912132E-01 -1.09579370E+00 -1.34630917E+00
 -1.13717332E+00 -4.28899935E-01  2.12264971E-03  1.57847198E-04  2.95539759E-04
  5.03181727E-04  7.78345620E-04  1.02505380E-03  1.06509656E-03  6.76821049E-04
 -4.53589728E-04 -1.93054518E-02 -5.95895000E-04  0.00000000E+00  0.00000000E+00
  0.00000000E+00  0.00000000E+00  0.00000000E+00  0.00000000E+00  1.19961499E-03
  1.12471531E-03  8.00864302E-04  0.00000000E+00  0.00000000E+00 -1.43440250E-03
  0.00000000E+00  0.00000000E+00 -1.41746965E-04  1.36819480E-03 -1.87234554E-04
 -1.18096024E-03  0.00000000E+00  0.00000000E+00  0.00000000E+00 -3.22026536E-05
  3.89936601E-04 -3.57733948E-04  0.00000000E+00  0.00000000E+00  0.00000000E+00
  0.00000000E+00  0.00000000E+00 -5.78117555E-04  0.00000000E+00  2.75235894E-04
  1.45911677E-03  0.00000000E+00  0.00000000E+00  0.00000000E+00  0.00000000E+00
  2.31336589E-01  4.31264000E-01  7.28912132E-01  1.09579370E+00  1.34630917E+00
  1.13717332E+00  4.28899935E-01 -2.12264971E-03 -1.57847198E-04 -2.95539759E-04
 -5.03181727E-04 -7.78345620E-04 -1.02505380E-03 -1.06509656E-03 -6.76821049E-04
  4.53589728E-04  1.93054518E-02  5.95895000E-04  0.00000000E+00  0.00000000E+00
  0.00000000E+00  0.00000000E+00  0.00000000E+00  0.00000000E+00  1.19961499E-03
  1.12471531E-03  8.00864302E-04  0.00000000E+00  0.00000000E+00 -1.43440250E-03
  0.00000000E+00  0.00000000E+00 -1.41746965E-04 -1.36819480E-03  1.87234554E-04
  1.18096024E-03  0.00000000E+00  0.00000000E+00  0.00000000E+00  3.22026536E-05
 -3.89936601E-04  3.57733948E-04  0.00000000E+00  0.00000000E+00  0.00000000E+00
  0.00000000E+00  0.00000000E+00 -5.78117555E-04  0.00000000E+00  2.75235894E-04
  1.45911677E-03  0.00000000E+00  0.00000000E+00  0.00000000E+00  0.00000000E+00
  1.54526605E-05  2.78695096E-05  4.10935756E-05  4.99593683E-04 -9.07077022E-06
  0.00000000E+00 -4.50140179E-04  2.76247380E-04  0.00000000E+00  1.62104195E-04
 -2.59863656E-04  6.98122437E-05 -2.20393426E-04  1.50581182E-04  0.00000000E+00
  0.00000000E+00  4.87169450E-04 -1.54526605E-05 -2.78695096E-05 -4.10935756E-05
 -4.99593683E-04  9.07077022E-06  0.00000000E+00 -4.50140179E-04  2.76247380E-04
  0.00000000E+00  1.62104195E-04 -2.59863656E-04 -6.98122437E-05  2.20393426E-04
 -1.50581182E-04  0.00000000E+00  0.00000000E+00 -4.87169450E-04 -1.54526605E-05
 -2.78695096E-05 -4.10935756E-05 -4.99593683E-04  9.07077022E-06  0.00000000E+00
  4.50140179E-04  2.76247380E-04  0.00000000E+00 -1.62104195E-04 -2.59863656E-04
 -6.98122437E-05  2.20393426E-04 -1.50581182E-04  0.00000000E+00  0.00000000E+00
  4.87169450E-04  1.54526605E-05  2.78695096E-05  4.10935756E-05  4.99593683E-04
 -9.07077022E-06  0.00000000E+00  4.50140179E-04  2.76247380E-04  0.00000000E+00
 -1.62104195E-04 -2.59863656E-04  6.98122437E-05 -2.20393426E-04  1.50581182E-04
  0.00000000E+00  0.00000000E+00 -4.87169450E-04
MO  3                     OCC NO =   2.00000000 ORB. ENERGY =  -1.03042730
 -5.02491302E-03 -9.36758035E-03 -1.58328610E-02 -2.38019763E-02 -2.92434780E-02
 -2.47007921E-02 -9.31622997E-03  4.61065421E-05 -4.31556774E-02 -8.08010446E-02
 -1.37570692E-01 -2.12800942E-01 -2.80251355E-01 -2.91199109E-01 -1.85043962E-01
  1.24012160E-01  4.76768578E-02  1.98189173E-02  0.00000000E+00  0.00000000E+00
  0.00000000E+00  0.00000000E+00  0.00000000E+00  0.00000000E+00  1.36471951E-01
  1.27951129E-01  9.11088261E-02  0.00000000E+00  0.00000000E+00  2.18318065E-02
  0.00000000E+00  0.00000000E+00  5.87438081E-04 -2.31301879E-02 -4.52591288E-04
  2.35827792E-02  0.00000000E+00  0.00000000E+00  0.00000000E+00 -2.83493694E-03
  8.73956965E-04  1.96097997E-03  0.00000000E+00  0.00000000E+00  0.00000000E+00
  0.00000000E+00  0.00000000E+00  5.79195802E-03  0.00000000E+00 -1.18079824E-03
 -1.61950758E-02  0.00000000E+00  0.00000000E+00  0.00000000E+00  0.00000000E+00
 -5.02491302E-03 -9.36758035E-03 -1.58328610E-02 -2.38019763E-02 -2.92434780E-02
 -2.47007921E-02 -9.31622997E-03  4.61065421E-05 -4.31556774E-02 -8.08010446E-02
 -1.37570692E-01 -2.12800942E-01 -2.80251355E-01 -2.91199109E-01 -1.85043962E-01
  1.24012160E-01  4.76768578E-02  1.98189173E-02  0.00000000E+00  0.00000000E+00
  0.00000000E+00  0.00000000E+00  0.00000000E+00  0.00000000E+00 -1.36471951E-01
 -1.27951129E-01 -9.11088261E-02  0.00000000E+00  0.00000000E+00 -2.18318065E-02
  0.00000000E+00  0.00000000E+00 -5.87438081E-04 -2.31301879E-02 -4.52591288E-04
  2.35827792E-02  0.00000000E+00  0.00000000E+00  0.00000000E+00 -2.83493694E-03
  8.73956965E-04  1.96097997E-03  0.00000000E+00  0.00000000E+00  0.00000000E+00
  0.00000000E+00  0.00000000E+00 -5.79195802E-03  0.00000000E+00  1.18079824E-03
  1.61950758E-02  0.00000000E+00  0.00000000E+00  0.00000000E+00  0.00000000E+00
  1.27470836E-02  2.29898902E-02  3.38985796E-02  1.18798667E-02  2.99470530E-04
  0.00000000E+00  7.05983711E-03 -6.63953692E-03  0.00000000E+00 -1.98484600E-03
  1.04724891E-03  8.60072852E-05 -1.12777018E-03  1.04176290E-03  0.00000000E+00
  0.00000000E+00  9.21719665E-04  1.27470836E-02  2.29898902E-02  3.38985796E-02
  1.18798667E-02  2.99470530E-04  0.00000000E+00 -7.05983711E-03  6.63953692E-03
  0.00000000E+00  1.98484600E-03 -1.04724891E-03  8.60072852E-05 -1.12777018E-03
  1.04176290E-03  0.00000000E+00  0.00000000E+00  9.21719665E-04  1.27470836E-02
  2.29898902E-02  3.38985796E-02  1.18798667E-02  2.99470530E-04  0.00000000E+00
  7.05983711E-03  6.63953692E-03  0.00000000E+00 -1.98484600E-03 -1.04724891E-03
  8.60072852E-05 -1.12777018E-03  1.04176290E-03  0.00000000E+00  0.00000000E+00
 -9.21719665E-04  1.27470836E-02  2.29898902E-02  3.38985796E-02  1.18798667E-02
  2.99470530E-04  0.00000000E+00 -7.05983711E-03 -6.63953692E-03  0.00000000E+00
  1.98484600E-03  1.04724891E-03  8.60072852E-05 -1.12777018E-03  1.04176290E-03
  0.00000000E+00  0.00000000E+00 -9.21719665E-04
MO  4                     OCC NO =   2.00000000 ORB. ENERGY =  -0.79043253
  2.13509398E-03  3.98030062E-03  6.72740922E-03  1.01134997E-02  1.24256029E-02
  1.04954080E-02  3.95848176E-03 -1.95907471E-05  3.45848714E-02  6.47537915E-02
  1.10248871E-01  1.70538239E-01  2.24592861E-01  2.33366369E-01  1.48293851E-01
 -9.93830907E-02 -3.86682272E-02 -2.84258079E-02  0.00000000E+00  0.00000000E+00
  0.00000000E+00  0.00000000E+00  0.00000000E+00  0.00000000E+00  1.92981512E-01
  1.80932435E-01  1.28834672E-01  0.00000000E+00  0.00000000E+00  4.43721145E-02
  0.00000000E+00  0.00000000E+00  2.10947891E-03  1.51227120E-02 -1.69138701E-02
  1.79115809E-03  0.00000000E+00  0.00000000E+00  0.00000000E+00  3.62919054E-03
 -3.46061372E-03 -1.68576822E-04  0.00000000E+00  0.00000000E+00  0.00000000E+00
  0.00000000E+00  0.00000000E+00 -2.92936937E-03  0.00000000E+00 -7.88204481E-04
  9.57631258E-03  0.00000000E+00  0.00000000E+00  0.00000000E+00  0.00000000E+00
 -2.13509398E-03 -3.98030062E-03 -6.72740922E-03 -1.01134997E-02 -1.24256029E-02
 -1.04954080E-02 -3.95848176E-03  1.95907471E-05 -3.45848714E-02 -6.47537915E-02
 -1.10248871E-01 -1.70538239E-01 -2.24592861E-01 -2.33366369E-01 -1.48293851E-01
  9.93830907E-02  3.86682272E-02  2.84258079E-02  0.00000000E+00  0.00000000E+00
  0.00000000E+00  0.00000000E+00  0.00000000E+00  0.00000000E+00  1.92981512E-01
  1.80932435E-01  1.28834672E-01  0.00000000E+00  0.00000000E+00  4.43721145E-02
  0.00000000E+00  0.00000000E+00  2.10947891E-03 -1.51227120E-02  1.69138701E-02
 -1.79115809E-03  0.00000000E+00  0.00000000E+00  0.00000000E+00 -3.62919054E-03
  3.46061372E-03  1.68576822E-04  0.00000000E+00  0.00000000E+00  0.00000000E+00
  0.00000000E+00  0.00000000E+00 -2.92936937E-03  0.00000000E+00 -7.88204481E-04
  9.57631258E-03  0.00000000E+00  0.00000000E+00  0.00000000E+00  0.00000000E+00
  2.23102576E-02  4.02374684E-02  5.93301236E-02  3.29119478E-02  3.00160689E-03
  0.00000000E+00  1.72688266E-02 -7.04630912E-03  0.00000000E+00  2.52192371E-03
  2.50008214E-04 -1.32804298E-03  2.84417529E-03 -1.51613230E-03  0.00000000E+00
  0.00000000E+00 -3.05048734E-03 -2.23102576E-02 -4.02374684E-02 -5.93301236E-02
 -3.29119478E-02 -3.00160689E-03  0.00000000E+00  1.72688266E-02 -7.04630912E-03
  0.00000000E+00  2.52192371E-03  2.50008214E-04  1.32804298E-03 -2.84417529E-03
  1.51613230E-03  0.00000000E+00  0.00000000E+00  3.05048734E-03 -2.23102576E-02
 -4.02374684E-02 -5.93301236E-02 -3.29119478E-02 -3.00160689E-03  0.00000000E+00
 -1.72688266E-02 -7.04630912E-03  0.00000000E+00 -2.52192371E-03  2.50008214E-04
  1.32804298E-03 -2.84417529E-03  1.51613230E-03  0.00000000E+00  0.00000000E+00
 -3.05048734E-03  2.23102576E-02  4.02374684E-02  5.93301236E-02  3.29119478E-02
  3.00160689E-03  0.00000000E+00 -1.72688266E-02 -7.04630912E-03  0.00000000E+00
 -2.52192371E-03  2.50008214E-04 -1.32804298E-03  2.84417529E-03 -1.51613230E-03
  0.00000000E+00  0.00000000E+00  3.05048734E-03
MO  5                     OCC NO =   2.00000000 ORB. ENERGY =  -0.64155761
  0.00000000E+00  0.00000000E+00  0.00000000E+00  0.00000000E+00  0.00000000E+00
  0.00000000E+00  0.00000000E+00  0.00000000E+00  0.00000000E+00  0.00000000E+00
  0.00000000E+00  0.00000000E+00  0.00000000E+00  0.00000000E+00  0.00000000E+00
  0.00000000E+00  0.00000000E+00  0.00000000E+00  0.00000000E+00  0.00000000E+00
  0.00000000E+00  3.80010825E-01  3.56284304E-01  2.53695649E-01  0.00000000E+00
  0.00000000E+00  0.00000000E+00  0.00000000E+00  8.89690036E-02  0.00000000E+00
  0.00000000E+00  7.62487497E-03  0.00000000E+00  0.00000000E+00  0.00000000E+00
  0.00000000E+00  0.00000000E+00  0.00000000E+00 -1.64068516E-02  0.00000000E+00
  0.00000000E+00  0.00000000E+00  0.00000000E+00  0.00000000E+00 -1.62562837E-03
  0.00000000E+00 -1.65878076E-03  0.00000000E+00 -4.50993900E-03  0.00000000E+00
  0.00000000E+00  0.00000000E+00  0.00000000E+00  9.48628129E-03  0.00000000E+00
  0.00000000E+00  0.00000000E+00  0.00000000E+00  0.00000000E+00  0.00000000E+00
  0.00000000E+00  0.00000000E+00  0.00000000E+00  0.00000000E+00  0.00000000E+00
  0.00000000E+00  0.00000000E+00  0.00000000E+00  0.00000000E+00  0.00000000E+00
  0.00000000E+00  0.00000000E+00  0.00000000E+00  0.00000000E+00  0.00000000E+00
  0.00000000E+00  3.80010825E-01  3.56284304E-01  2.53695649E-01  0.00000000E+00
  0.00000000E+00  0.00000000E+00  0.00000000E+00  8.89690036E-02  0.00000000E+00
  0.00000000E+00  7.62487497E-03  0.00000000E+00  0.00000000E+00  0.00000000E+00
  0.00000000E+00  0.00000000E+00  0.00000000E+00  1.64068516E-02  0.00000000E+00
  0.00000000E+00  0.00000000E+00  0.00000000E+00  0.00000000E+00  1.62562837E-03
  0.00000000E+00 -1.65878076E-03  0.00000000E+00 -4.50993900E-03  0.00000000E+00
  0.00000000E+00  0.00000000E+00  0.00000000E+00  9.48628129E-03  0.00000000E+00
 -2.38656601E-02 -4.30427009E-02 -6.34664373E-02 -4.48783439E-02 -5.77310795E-03
  0.00000000E+00 -1.35609659E-02  1.47284809E-02  0.00000000E+00 -3.19773848E-03
  4.05144786E-03  2.68830274E-03 -4.07285912E-04 -2.28101682E-03  0.00000000E+00
  0.00000000E+00  9.32180570E-03  2.38656601E-02  4.30427009E-02  6.34664373E-02
  4.48783439E-02  5.77310795E-03  0.00000000E+00 -1.35609659E-02  1.47284809E-02
  0.00000000E+00 -3.19773848E-03  4.05144786E-03 -2.68830274E-03  4.07285912E-04
  2.28101682E-03  0.00000000E+00  0.00000000E+00 -9.32180570E-03 -2.38656601E-02
 -4.30427009E-02 -6.34664373E-02 -4.48783439E-02 -5.77310795E-03  0.00000000E+00
 -1.35609659E-02 -1.47284809E-02  0.00000000E+00 -3.19773848E-03 -4.05144786E-03
  2.68830274E-03 -4.07285912E-04 -2.28101682E-03  0.00000000E+00  0.00000000E+00
 -9.32180570E-03  2.38656601E-02  4.30427009E-02  6.34664373E-02  4.48783439E-02
  5.77310795E-03  0.00000000E+00 -1.35609659E-02 -1.47284809E-02  0.00000000E+00
 -3.19773848E-03 -4.05144786E-03 -2.68830274E-03  4.07285912E-04  2.28101682E-03
  0.00000000E+00  0.00000000E+00  9.32180570E-03
MO  6                     OCC NO =   2.00000000 ORB. ENERGY =  -0.58375894
  3.41907295E-05  6.37392935E-05  1.07730635E-04  1.61954432E-04  1.98979732E-04
  1.68070193E-04  6.33898931E-05 -3.13720119E-07 -3.43771965E-03 -6.43649586E-03
 -1.09586849E-02 -1.69514192E-02 -2.23244228E-02 -2.31965053E-02 -1.47403378E-02
  9.87863160E-03  3.21594570E-03 -2.50892330E-03  0.00000000E+00  0.00000000E+00
  0.00000000E+00  0.00000000E+00  0.00000000E+00  0.00000000E+00  4.96057867E-01
  4.65085781E-01  3.31168783E-01  0.00000000E+00  0.00000000E+00  1.13148073E-01
  0.00000000E+00  0.00000000E+00  1.01660657E-02 -2.34311160E-03 -2.85721690E-02
  3.09152806E-02  0.00000000E+00  0.00000000E+00  0.00000000E+00  3.15427516E-04
 -3.20769852E-03  2.89227100E-03  0.00000000E+00  0.00000000E+00  0.00000000E+00
  0.00000000E+00  0.00000000E+00  4.60027217E-03  0.00000000E+00 -8.15845182E-03
 -5.64236468E-03  0.00000000E+00  0.00000000E+00  0.00000000E+00  0.00000000E+00
  3.41907295E-05  6.37392935E-05  1.07730635E-04  1.61954432E-04  1.98979732E-04
  1.68070193E-04  6.33898931E-05 -3.13720119E-07 -3.43771965E-03 -6.43649586E-03
 -1.09586849E-02 -1.69514192E-02 -2.23244228E-02 -2.31965053E-02 -1.47403378E-02
  9.87863160E-03  3.21594570E-03 -2.50892330E-03  0.00000000E+00  0.00000000E+00
  0.00000000E+00  0.00000000E+00  0.00000000E+00  0.00000000E+00 -4.96057867E-01
 -4.65085781E-01 -3.31168783E-01  0.00000000E+00  0.00000000E+00 -1.13148073E-01
  0.00000000E+00  0.00000000E+00 -1.01660657E-02 -2.34311160E-03 -2.85721690E-02
  3.09152806E-02  0.00000000E+00  0.00000000E+00  0.00000000E+00  3.15427516E-04
 -3.20769852E-03  2.89227100E-03  0.00000000E+00  0.00000000E+00  0.00000000E+00
  0.00000000E+00  0.00000000E+00 -4.60027217E-03  0.00000000E+00  8.15845182E-03
  5.64236468E-03  0.00000000E+00  0.00000000E+00  0.00000000E+00  0.00000000E+00
 -1.91772315E-02 -3.45869268E-02 -5.09984034E-02 -3.65013650E-02 -5.91405896E-03
  0.00000000E+00 -1.70424932E-02  1.61106881E-03  0.00000000E+00 -4.92239231E-03
 -9.51134216E-04  1.39339312E-03 -4.71542827E-03  3.32203515E-03  0.00000000E+00
  0.00000000E+00  3.06519697E-03 -1.91772315E-02 -3.45869268E-02 -5.09984034E-02
 -3.65013650E-02 -5.91405896E-03  0.00000000E+00  1.70424932E-02 -1.61106881E-03
  0.00000000E+00  4.92239231E-03  9.51134216E-04  1.39339312E-03 -4.71542827E-03
  3.32203515E-03  0.00000000E+00  0.00000000E+00  3.06519697E-03 -1.91772315E-02
 -3.45869268E-02 -5.09984034E-02 -3.65013650E-02 -5.91405896E-03  0.00000000E+00
 -1.70424932E-02 -1.61106881E-03  0.00000000E+00 -4.92239231E-03  9.51134216E-04
  1.39339312E-03 -4.71542827E-03  3.32203515E-03  0.00000000E+00  0.00000000E+00
 -3.06519697E-03 -1.91772315E-02 -3.45869268E-02 -5.09984034E-02 -3.65013650E-02
 -5.91405896E-03  0.00000000E+00  1.70424932E-02  1.61106881E-03  0.00000000E+00
  4.92239231E-03 -9.51134216E-04  1.39339312E-03 -4.71542827E-03  3.32203515E-03
  0.00000000E+00  0.00000000E+00 -3.06519697E-03
MO  7                     OCC NO =   2.00000000 ORB. ENERGY =  -0.50699498
  0.00000000E+00  0.00000000E+00  0.00000000E+00  0.00000000E+00  0.00000000E+00
  0.00000000E+00  0.00000000E+00  0.00000000E+00  0.00000000E+00  0.00000000E+00
  0.00000000E+00  0.00000000E+00  0.00000000E+00  0.00000000E+00  0.00000000E+00
  0.00000000E+00  0.00000000E+00  0.00000000E+00  0.00000000E+00  0.00000000E+00
  0.00000000E+00 -3.60716133E-01 -3.38194303E-01 -2.40814491E-01  0.00000000E+00
  0.00000000E+00  0.00000000E+00  0.00000000E+00 -8.97170701E-02  0.00000000E+00
  0.00000000E+00 -1.28327579E-02  0.00000000E+00  0.00000000E+00  0.00000000E+00
  0.00000000E+00  0.00000000E+00  0.00000000E+00  6.83619985E-02  0.00000000E+00
  0.00000000E+00  0.00000000E+00  0.00000000E+00  0.00000000E+00  1.37678124E-02
  0.00000000E+00 -2.64734977E-03  0.00000000E+00  4.91729210E-03  0.00000000E+00
  0.00000000E+00  0.00000000E+00  0.00000000E+00  3.02475722E-03  0.00000000E+00
  0.00000000E+00  0.00000000E+00  0.00000000E+00  0.00000000E+00  0.00000000E+00
  0.00000000E+00  0.00000000E+00  0.00000000E+00  0.00000000E+00  0.00000000E+00
  0.00000000E+00  0.00000000E+00  0.00000000E+00  0.00000000E+00  0.00000000E+00
  0.00000000E+00  0.00000000E+00  0.00000000E+00  0.00000000E+00  0.00000000E+00
  0.00000000E+00  3.60716133E-01  3.38194303E-01  2.40814491E-01  0.00000000E+00
  0.00000000E+00  0.00000000E+00  0.00000000E+00  8.97170701E-02  0.00000000E+00
  0.00000000E+00  1.28327579E-02  0.00000000E+00  0.00000000E+00  0.00000000E+00
  0.00000000E+00  0.00000000E+00  0.00000000E+00  6.83619985E-02  0.00000000E+00
  0.00000000E+00  0.00000000E+00  0.00000000E+00  0.00000000E+00  1.37678124E-02
  0.00000000E+00  2.64734977E-03  0.00000000E+00 -4.91729210E-03  0.00000000E+00
  0.00000000E+00  0.00000000E+00  0.00000000E+00 -3.02475722E-03  0.00000000E+00
 -2.87394804E-02 -5.18328364E-02 -7.64274870E-02 -5.09078938E-02 -1.04795003E-02
  0.00000000E+00 -1.48321372E-02  1.15820126E-02  0.00000000E+00 -9.38873319E-04
  2.06905715E-03  1.46835899E-03 -2.00477186E-03  5.36412870E-04  0.00000000E+00
  0.00000000E+00  5.00247645E-03 -2.87394804E-02 -5.18328364E-02 -7.64274870E-02
 -5.09078938E-02 -1.04795003E-02  0.00000000E+00  1.48321372E-02 -1.15820126E-02
  0.00000000E+00  9.38873319E-04 -2.06905715E-03  1.46835899E-03 -2.00477186E-03
  5.36412870E-04  0.00000000E+00  0.00000000E+00  5.00247645E-03  2.87394804E-02
  5.18328364E-02  7.64274870E-02  5.09078938E-02  1.04795003E-02  0.00000000E+00
  1.48321372E-02  1.15820126E-02  0.00000000E+00  9.38873319E-04  2.06905715E-03
 -1.46835899E-03  2.00477186E-03 -5.36412870E-04  0.00000000E+00  0.00000000E+00
  5.00247645E-03  2.87394804E-02  5.18328364E-02  7.64274870E-02  5.09078938E-02
  1.04795003E-02  0.00000000E+00 -1.48321372E-02 -1.15820126E-02  0.00000000E+00
 -9.38873319E-04 -2.06905715E-03 -1.46835899E-03  2.00477186E-03 -5.36412870E-04
  0.00000000E+00  0.00000000E+00  5.00247645E-03
MO  8                     OCC NO =   2.00000000 ORB. ENERGY =  -0.37496050
  0.00000000E+00  0.00000000E+00  0.00000000E+00  0.00000000E+00  0.00000000E+00
  0.00000000E+00  0.00000000E+00  0.00000000E+00  0.00000000E+00  0.00000000E+00
  0.00000000E+00  0.00000000E+00  0.00000000E+00  0.00000000E+00  0.00000000E+00
  0.00000000E+00  0.00000000E+00  0.00000000E+00 -4.43968975E-01 -4.16249134E-01
 -2.96394181E-01  0.00000000E+00  0.00000000E+00  0.00000000E+00  0.00000000E+00
  0.00000000E+00  0.00000000E+00 -1.18729730E-01  0.00000000E+00  0.00000000E+00
 -2.24518855E-02  0.00000000E+00  0.00000000E+00  0.00000000E+00  0.00000000E+00
  0.00000000E+00  0.00000000E+00 -4.69032125E-02  0.00000000E+00  0.00000000E+00
  0.00000000E+00  0.00000000E+00  0.00000000E+00 -1.05577627E-02  0.00000000E+00
  4.34117785E-03  0.00000000E+00  0.00000000E+00  0.00000000E+00  0.00000000E+00
  0.00000000E+00  6.78535240E-04 -1.37020688E-02  0.00000000E+00  0.00000000E+00
  0.00000000E+00  0.00000000E+00  0.00000000E+00  0.00000000E+00  0.00000000E+00
  0.00000000E+00  0.00000000E+00  0.00000000E+00  0.00000000E+00  0.00000000E+00
  0.00000000E+00  0.00000000E+00  0.00000000E+00  0.00000000E+00  0.00000000E+00
  0.00000000E+00  0.00000000E+00  0.00000000E+00 -4.43968975E-01 -4.16249134E-01
 -2.96394181E-01  0.00000000E+00  0.00000000E+00  0.00000000E+00  0.00000000E+00
  0.00000000E+00  0.00000000E+00 -1.18729730E-01  0.00000000E+00  0.00000000E+00
 -2.24518855E-02  0.00000000E+00  0.00000000E+00  0.00000000E+00  0.00000000E+00
  0.00000000E+00  0.00000000E+00  4.69032125E-02  0.00000000E+00  0.00000000E+00
  0.00000000E+00  0.00000000E+00  0.00000000E+00  1.05577627E-02  0.00000000E+00
  4.34117785E-03  0.00000000E+00  0.00000000E+00  0.00000000E+00  0.00000000E+00
  0.00000000E+00  6.78535240E-04 -1.37020688E-02  0.00000000E+00  0.00000000E+00
  0.00000000E+00  0.00000000E+00  0.00000000E+00  0.00000000E+00  0.00000000E+00
 -1.10256459E-02  0.00000000E+00  0.00000000E+00 -5.85180606E-03  0.00000000E+00
  0.00000000E+00  0.00000000E+00  0.00000000E+00  0.00000000E+00 -5.14323663E-03
  4.99782447E-03  0.00000000E+00  0.00000000E+00  0.00000000E+00  0.00000000E+00
  0.00000000E+00  0.00000000E+00 -1.10256459E-02  0.00000000E+00  0.00000000E+00
 -5.85180606E-03  0.00000000E+00  0.00000000E+00  0.00000000E+00  0.00000000E+00
  0.00000000E+00  5.14323663E-03 -4.99782447E-03  0.00000000E+00  0.00000000E+00
  0.00000000E+00  0.00000000E+00  0.00000000E+00  0.00000000E+00 -1.10256459E-02
  0.00000000E+00  0.00000000E+00 -5.85180606E-03  0.00000000E+00  0.00000000E+00
  0.00000000E+00  0.00000000E+00  0.00000000E+00 -5.14323663E-03 -4.99782447E-03
  0.00000000E+00  0.00000000E+00  0.00000000E+00  0.00000000E+00  0.00000000E+00
  0.00000000E+00 -1.10256459E-02  0.00000000E+00  0.00000000E+00 -5.85180606E-03
  0.00000000E+00  0.00000000E+00  0.00000000E+00  0.00000000E+00  0.00000000E+00
  5.14323663E-03  4.99782447E-03  0.00000000E+00
END DATA
RHF      ENERGY =      -78.0632398466   VIRIAL(-V/T)  =   2.00221426
