imidazol                                                                        
GAUSSIAN             18 MOL ORBITALS    343 PRIMITIVES        9 NUCLEI
  N    1    (CENTRE  1)   2.27382173 -0.14817655  0.00000000  CHARGE =  7.0
  H    2    (CENTRE  2)  -3.36476673 -2.20147156  0.00000000  CHARGE =  1.0
  C    3    (CENTRE  3)  -1.68359095  1.45188643  0.00000000  CHARGE =  6.0
  H    4    (CENTRE  4)  -3.24926656  2.75817654  0.00000000  CHARGE =  1.0
  C    5    (CENTRE  5)   0.82889775  2.02729873  0.00000000  CHARGE =  6.0
  H    6    (CENTRE  6)   1.58376772  3.91941918  0.00000000  CHARGE =  1.0
  H    7    (CENTRE  7)   1.13951604 -3.98262257  0.00000000  CHARGE =  1.0
  C    8    (CENTRE  8)   0.62928152 -2.00851072  0.00000000  CHARGE =  6.0
  N    9    (CENTRE  9)  -1.80063015 -1.14764332  0.00000000  CHARGE =  7.0
CENTRE ASSIGNMENTS    1  1  1  1  1  1  1  1  1  1  1  1  1  1  1  1  1  1  1  1
CENTRE ASSIGNMENTS    1  1  1  1  1  1  1  1  1  1  1  1  1  1  1  1  1  1  1  1
CENTRE ASSIGNMENTS    1  1  1  1  1  1  1  1  1  1  1  1  1  1  1  2  2  2  2  2
CENTRE ASSIGNMENTS    2  2  2  2  2  2  2  2  2  2  2  2  3  3  3  3  3  3  3  3
CENTRE ASSIGNMENTS    3  3  3  3  3  3  3  3  3  3  3  3  3  3  3  3  3  3  3  3
CENTRE ASSIGNMENTS    3  3  3  3  3  3  3  3  3  3  3  3  3  3  3  3  3  3  3  3
CENTRE ASSIGNMENTS    3  3  3  3  3  3  3  4  4  4  4  4  4  4  4  4  4  4  4  4
CENTRE ASSIGNMENTS    4  4  4  4  5  5  5  5  5  5  5  5  5  5  5  5  5  5  5  5
CENTRE ASSIGNMENTS    5  5  5  5  5  5  5  5  5  5  5  5  5  5  5  5  5  5  5  5
CENTRE ASSIGNMENTS    5  5  5  5  5  5  5  5  5  5  5  5  5  5  5  5  5  5  5  6
CENTRE ASSIGNMENTS    6  6  6  6  6  6  6  6  6  6  6  6  6  6  6  6  7  7  7  7
CENTRE ASSIGNMENTS    7  7  7  7  7  7  7  7  7  7  7  7  7  8  8  8  8  8  8  8
CENTRE ASSIGNMENTS    8  8  8  8  8  8  8  8  8  8  8  8  8  8  8  8  8  8  8  8
CENTRE ASSIGNMENTS    8  8  8  8  8  8  8  8  8  8  8  8  8  8  8  8  8  8  8  8
CENTRE ASSIGNMENTS    8  8  8  8  8  8  8  8  9  9  9  9  9  9  9  9  9  9  9  9
CENTRE ASSIGNMENTS    9  9  9  9  9  9  9  9  9  9  9  9  9  9  9  9  9  9  9  9
CENTRE ASSIGNMENTS    9  9  9  9  9  9  9  9  9  9  9  9  9  9  9  9  9  9  9  9
CENTRE ASSIGNMENTS    9  9  9
TYPE ASSIGNMENTS      1  1  1  1  1  1  1  1  1  1  1  1  1  1  1  1  1  1  2  2
TYPE ASSIGNMENTS      2  3  3  3  4  4  4  2  3  4  2  3  4  5  6  7  8  9 10  5
TYPE ASSIGNMENTS      6  7  8  9 10 11 12 13 14 15 16 17 18 19 20  1  1  1  1  1
TYPE ASSIGNMENTS      2  3  4  2  3  4  5  6  7  8  9 10  1  1  1  1  1  1  1  1
TYPE ASSIGNMENTS      1  1  1  1  1  1  1  1  1  1  2  2  2  3  3  3  4  4  4  2
TYPE ASSIGNMENTS      3  4  2  3  4  5  6  7  8  9 10  5  6  7  8  9 10 11 12 13
TYPE ASSIGNMENTS     14 15 16 17 18 19 20  1  1  1  1  1  2  3  4  2  3  4  5  6
TYPE ASSIGNMENTS      7  8  9 10  1  1  1  1  1  1  1  1  1  1  1  1  1  1  1  1
TYPE ASSIGNMENTS      1  1  2  2  2  3  3  3  4  4  4  2  3  4  2  3  4  5  6  7
TYPE ASSIGNMENTS      8  9 10  5  6  7  8  9 10 11 12 13 14 15 16 17 18 19 20  1
TYPE ASSIGNMENTS      1  1  1  1  2  3  4  2  3  4  5  6  7  8  9 10  1  1  1  1
TYPE ASSIGNMENTS      1  2  3  4  2  3  4  5  6  7  8  9 10  1  1  1  1  1  1  1
TYPE ASSIGNMENTS      1  1  1  1  1  1  1  1  1  1  1  2  2  2  3  3  3  4  4  4
TYPE ASSIGNMENTS      2  3  4  2  3  4  5  6  7  8  9 10  5  6  7  8  9 10 11 12
TYPE ASSIGNMENTS     13 14 15 16 17 18 19 20  1  1  1  1  1  1  1  1  1  1  1  1
TYPE ASSIGNMENTS      1  1  1  1  1  1  2  2  2  3  3  3  4  4  4  2  3  4  2  3
TYPE ASSIGNMENTS      4  5  6  7  8  9 10  5  6  7  8  9 10 11 12 13 14 15 16 17
TYPE ASSIGNMENTS     18 19 20
EXPONENTS  1.1420000E+04 1.7120000E+03 3.8930000E+02 1.1000000E+02 3.5570000E+01
EXPONENTS  1.2540000E+01 4.6440000E+00 5.1180000E-01 1.1420000E+04 1.7120000E+03
EXPONENTS  3.8930000E+02 1.1000000E+02 3.5570000E+01 1.2540000E+01 4.6440000E+00
EXPONENTS  5.1180000E-01 1.2930000E+00 1.7870000E-01 2.6630000E+01 5.9480000E+00
EXPONENTS  1.7420000E+00 2.6630000E+01 5.9480000E+00 1.7420000E+00 2.6630000E+01
EXPONENTS  5.9480000E+00 1.7420000E+00 5.5500000E-01 5.5500000E-01 5.5500000E-01
EXPONENTS  1.7250000E-01 1.7250000E-01 1.7250000E-01 1.6540000E+00 1.6540000E+00
EXPONENTS  1.6540000E+00 1.6540000E+00 1.6540000E+00 1.6540000E+00 4.6900000E-01
EXPONENTS  4.6900000E-01 4.6900000E-01 4.6900000E-01 4.6900000E-01 4.6900000E-01
EXPONENTS  1.0930000E+00 1.0930000E+00 1.0930000E+00 1.0930000E+00 1.0930000E+00
EXPONENTS  1.0930000E+00 1.0930000E+00 1.0930000E+00 1.0930000E+00 1.0930000E+00
EXPONENTS  3.3870000E+01 5.0950000E+00 1.1590000E+00 3.2580000E-01 1.0270000E-01
EXPONENTS  1.4070000E+00 1.4070000E+00 1.4070000E+00 3.8800000E-01 3.8800000E-01
EXPONENTS  3.8800000E-01 1.0570000E+00 1.0570000E+00 1.0570000E+00 1.0570000E+00
EXPONENTS  1.0570000E+00 1.0570000E+00 8.2360000E+03 1.2350000E+03 2.8080000E+02
EXPONENTS  7.9270000E+01 2.5590000E+01 8.9970000E+00 3.3190000E+00 3.6430000E-01
EXPONENTS  8.2360000E+03 1.2350000E+03 2.8080000E+02 7.9270000E+01 2.5590000E+01
EXPONENTS  8.9970000E+00 3.3190000E+00 3.6430000E-01 9.0590000E-01 1.2850000E-01
EXPONENTS  1.8710000E+01 4.1330000E+00 1.2000000E+00 1.8710000E+01 4.1330000E+00
EXPONENTS  1.2000000E+00 1.8710000E+01 4.1330000E+00 1.2000000E+00 3.8270000E-01
EXPONENTS  3.8270000E-01 3.8270000E-01 1.2090000E-01 1.2090000E-01 1.2090000E-01
EXPONENTS  1.0970000E+00 1.0970000E+00 1.0970000E+00 1.0970000E+00 1.0970000E+00
EXPONENTS  1.0970000E+00 3.1800000E-01 3.1800000E-01 3.1800000E-01 3.1800000E-01
EXPONENTS  3.1800000E-01 3.1800000E-01 7.6100000E-01 7.6100000E-01 7.6100000E-01
EXPONENTS  7.6100000E-01 7.6100000E-01 7.6100000E-01 7.6100000E-01 7.6100000E-01
EXPONENTS  7.6100000E-01 7.6100000E-01 3.3870000E+01 5.0950000E+00 1.1590000E+00
EXPONENTS  3.2580000E-01 1.0270000E-01 1.4070000E+00 1.4070000E+00 1.4070000E+00
EXPONENTS  3.8800000E-01 3.8800000E-01 3.8800000E-01 1.0570000E+00 1.0570000E+00
EXPONENTS  1.0570000E+00 1.0570000E+00 1.0570000E+00 1.0570000E+00 8.2360000E+03
EXPONENTS  1.2350000E+03 2.8080000E+02 7.9270000E+01 2.5590000E+01 8.9970000E+00
EXPONENTS  3.3190000E+00 3.6430000E-01 8.2360000E+03 1.2350000E+03 2.8080000E+02
EXPONENTS  7.9270000E+01 2.5590000E+01 8.9970000E+00 3.3190000E+00 3.6430000E-01
EXPONENTS  9.0590000E-01 1.2850000E-01 1.8710000E+01 4.1330000E+00 1.2000000E+00
EXPONENTS  1.8710000E+01 4.1330000E+00 1.2000000E+00 1.8710000E+01 4.1330000E+00
EXPONENTS  1.2000000E+00 3.8270000E-01 3.8270000E-01 3.8270000E-01 1.2090000E-01
EXPONENTS  1.2090000E-01 1.2090000E-01 1.0970000E+00 1.0970000E+00 1.0970000E+00
EXPONENTS  1.0970000E+00 1.0970000E+00 1.0970000E+00 3.1800000E-01 3.1800000E-01
EXPONENTS  3.1800000E-01 3.1800000E-01 3.1800000E-01 3.1800000E-01 7.6100000E-01
EXPONENTS  7.6100000E-01 7.6100000E-01 7.6100000E-01 7.6100000E-01 7.6100000E-01
EXPONENTS  7.6100000E-01 7.6100000E-01 7.6100000E-01 7.6100000E-01 3.3870000E+01
EXPONENTS  5.0950000E+00 1.1590000E+00 3.2580000E-01 1.0270000E-01 1.4070000E+00
EXPONENTS  1.4070000E+00 1.4070000E+00 3.8800000E-01 3.8800000E-01 3.8800000E-01
EXPONENTS  1.0570000E+00 1.0570000E+00 1.0570000E+00 1.0570000E+00 1.0570000E+00
EXPONENTS  1.0570000E+00 3.3870000E+01 5.0950000E+00 1.1590000E+00 3.2580000E-01
EXPONENTS  1.0270000E-01 1.4070000E+00 1.4070000E+00 1.4070000E+00 3.8800000E-01
EXPONENTS  3.8800000E-01 3.8800000E-01 1.0570000E+00 1.0570000E+00 1.0570000E+00
EXPONENTS  1.0570000E+00 1.0570000E+00 1.0570000E+00 8.2360000E+03 1.2350000E+03
EXPONENTS  2.8080000E+02 7.9270000E+01 2.5590000E+01 8.9970000E+00 3.3190000E+00
EXPONENTS  3.6430000E-01 8.2360000E+03 1.2350000E+03 2.8080000E+02 7.9270000E+01
EXPONENTS  2.5590000E+01 8.9970000E+00 3.3190000E+00 3.6430000E-01 9.0590000E-01
EXPONENTS  1.2850000E-01 1.8710000E+01 4.1330000E+00 1.2000000E+00 1.8710000E+01
EXPONENTS  4.1330000E+00 1.2000000E+00 1.8710000E+01 4.1330000E+00 1.2000000E+00
EXPONENTS  3.8270000E-01 3.8270000E-01 3.8270000E-01 1.2090000E-01 1.2090000E-01
EXPONENTS  1.2090000E-01 1.0970000E+00 1.0970000E+00 1.0970000E+00 1.0970000E+00
EXPONENTS  1.0970000E+00 1.0970000E+00 3.1800000E-01 3.1800000E-01 3.1800000E-01
EXPONENTS  3.1800000E-01 3.1800000E-01 3.1800000E-01 7.6100000E-01 7.6100000E-01
EXPONENTS  7.6100000E-01 7.6100000E-01 7.6100000E-01 7.6100000E-01 7.6100000E-01
EXPONENTS  7.6100000E-01 7.6100000E-01 7.6100000E-01 1.1420000E+04 1.7120000E+03
EXPONENTS  3.8930000E+02 1.1000000E+02 3.5570000E+01 1.2540000E+01 4.6440000E+00
EXPONENTS  5.1180000E-01 1.1420000E+04 1.7120000E+03 3.8930000E+02 1.1000000E+02
EXPONENTS  3.5570000E+01 1.2540000E+01 4.6440000E+00 5.1180000E-01 1.2930000E+00
EXPONENTS  1.7870000E-01 2.6630000E+01 5.9480000E+00 1.7420000E+00 2.6630000E+01
EXPONENTS  5.9480000E+00 1.7420000E+00 2.6630000E+01 5.9480000E+00 1.7420000E+00
EXPONENTS  5.5500000E-01 5.5500000E-01 5.5500000E-01 1.7250000E-01 1.7250000E-01
EXPONENTS  1.7250000E-01 1.6540000E+00 1.6540000E+00 1.6540000E+00 1.6540000E+00
EXPONENTS  1.6540000E+00 1.6540000E+00 4.6900000E-01 4.6900000E-01 4.6900000E-01
EXPONENTS  4.6900000E-01 4.6900000E-01 4.6900000E-01 1.0930000E+00 1.0930000E+00
EXPONENTS  1.0930000E+00 1.0930000E+00 1.0930000E+00 1.0930000E+00 1.0930000E+00
EXPONENTS  1.0930000E+00 1.0930000E+00 1.0930000E+00
MO  1                     OCC NO =   2.00000000 ORB. ENERGY = -15.62064626
  8.09149177E-05  1.50773035E-04  2.54995000E-04  3.84008340E-04  4.75427237E-04
  4.04567122E-04  1.53945253E-04 -7.20991297E-07  7.76632167E-06  1.45619257E-05
  2.47741683E-05  3.84716676E-05  5.10541405E-05  5.38040560E-05  3.33619471E-05
 -2.21923801E-05 -1.62302776E-05  3.73725562E-05  1.16773994E-04  1.12160026E-04
  7.86543520E-05  2.50234695E-05  2.40347434E-05  1.68548211E-05  0.00000000E+00
  0.00000000E+00  0.00000000E+00 -8.61609417E-05  4.74079208E-05  0.00000000E+00
 -6.60278064E-06  3.03685747E-05  0.00000000E+00  4.61580549E-06 -4.35102017E-05
  3.88943962E-05 -1.42840365E-04  0.00000000E+00  0.00000000E+00  6.45701897E-05
 -4.59459128E-05 -1.86242769E-05 -1.44586907E-05  0.00000000E+00  0.00000000E+00
 -1.03110770E-04 -9.12574539E-06  0.00000000E+00 -6.99053444E-06  0.00000000E+00
  0.00000000E+00  2.33761843E-04  7.55704673E-05  3.43677706E-05  0.00000000E+00
 -7.35208507E-05 -1.32597882E-04 -1.95515500E-04 -1.51200016E-04  6.86350216E-06
  4.58262827E-04  3.06370410E-04  0.00000000E+00 -7.72266354E-05 -3.66772498E-05
  0.00000000E+00  3.65476113E-04 -4.70472029E-05 -3.18428910E-04  1.04950382E-03
  0.00000000E+00  0.00000000E+00 -3.61439419E-05 -6.73805256E-05 -1.13884958E-04
 -1.71206397E-04 -2.10346840E-04 -1.77671532E-04 -6.70111650E-05  3.31641995E-07
  2.84640551E-05  5.32936921E-05  9.07370708E-05  1.40356451E-04  1.84844509E-04
  1.92065285E-04  1.22048867E-04 -8.17943122E-05 -5.00310445E-05  2.15489679E-04
  1.42893608E-04  1.33971840E-04  9.53959312E-05  3.37886591E-04  3.16790157E-04
  2.25573464E-04  0.00000000E+00  0.00000000E+00  0.00000000E+00 -1.59786267E-04
  3.40445261E-04  0.00000000E+00  5.07433483E-05 -8.24596817E-05  0.00000000E+00
  1.37415738E-04 -1.71906867E-04  3.44911285E-05  1.16021808E-06  0.00000000E+00
  0.00000000E+00  1.09650514E-05 -1.94253462E-05  8.46029472E-06  6.23553206E-05
  0.00000000E+00  0.00000000E+00  2.47510662E-05 -1.60299966E-04  0.00000000E+00
  4.95873715E-04  0.00000000E+00  0.00000000E+00 -1.98747685E-04  1.24494486E-04
 -1.49738187E-05  0.00000000E+00 -3.19001621E-05 -5.75332561E-05 -8.48327525E-05
 -6.12959002E-05  3.77908531E-05 -1.71609127E-04  1.49064668E-04  0.00000000E+00
 -3.75805847E-05  4.74806124E-05  0.00000000E+00 -1.09025364E-05  3.89308307E-05
 -2.80282943E-05  1.62984323E-04  0.00000000E+00  0.00000000E+00 -1.34118817E-05
 -2.50027969E-05 -4.22591313E-05 -6.35293168E-05 -7.80531059E-05 -6.59283257E-05
 -2.48657388E-05  1.23061929E-07  1.01467611E-05  1.89979383E-05  3.23456154E-05
  5.00337487E-05  6.58926870E-05  6.84667225E-05  4.35075286E-05 -2.91577339E-05
 -2.53441818E-05 -1.73514697E-04  3.05660749E-05  2.86576381E-05  2.04059456E-05
  6.90098509E-05  6.47011217E-05  4.60710531E-05  0.00000000E+00  0.00000000E+00
  0.00000000E+00 -3.03679085E-05 -1.80817300E-04  0.00000000E+00  1.10583761E-05
  5.39383725E-05  0.00000000E+00 -4.51476746E-05  4.25700436E-05  2.57763095E-06
  1.28336710E-04  0.00000000E+00  0.00000000E+00 -7.90459090E-06 -8.96807053E-07
  8.80139795E-06  1.77263910E-05  0.00000000E+00  0.00000000E+00  6.34221663E-05
  4.46070938E-05  0.00000000E+00 -1.46901722E-04  0.00000000E+00  0.00000000E+00
 -2.19051615E-04  2.87851159E-05  1.30804404E-05  0.00000000E+00  2.33980308E-06
  4.21993121E-06  6.22228610E-06  9.11496412E-05 -9.90759217E-06  3.53184800E-05
 -4.83682199E-05  0.00000000E+00 -2.52294503E-05 -8.39994759E-05  0.00000000E+00
 -5.59344205E-05  7.38911105E-05 -1.79566900E-05 -3.02201345E-05  0.00000000E+00
  0.00000000E+00 -3.03759851E-05 -5.47843400E-05 -8.07794774E-05 -4.96390547E-05
  2.90149930E-05  2.55659212E-05 -2.15594014E-04  0.00000000E+00 -1.29024984E-05
 -4.37334785E-05  0.00000000E+00  1.21656833E-04 -8.63045675E-05 -3.53522658E-05
 -5.40080595E-05  0.00000000E+00  0.00000000E+00 -2.44004671E-05 -4.54880184E-05
 -7.68827644E-05 -1.15579979E-04 -1.42003358E-04 -1.19944537E-04 -4.52386662E-05
  2.23888684E-07  1.98006009E-05  3.70729724E-05  6.31199076E-05  9.76368994E-05
  1.28584362E-04  1.33607388E-04  8.49014975E-05 -5.68990092E-05 -7.41261323E-05
  1.33456017E-04  3.96195019E-04  3.71458014E-04  2.64500235E-04 -3.61950259E-05
 -3.39351375E-05 -2.41638395E-05  0.00000000E+00  0.00000000E+00  0.00000000E+00
  2.01773190E-04 -2.22863403E-04  0.00000000E+00 -3.07762916E-05  5.49299914E-05
  0.00000000E+00 -8.10315800E-05  7.85399217E-05  2.49165835E-06  1.99893043E-04
  0.00000000E+00  0.00000000E+00  1.58347574E-05 -1.86295545E-05  2.79479713E-06
  2.08693304E-05  0.00000000E+00  0.00000000E+00 -1.50347534E-04 -1.39451089E-04
  0.00000000E+00  3.27157244E-04  0.00000000E+00  0.00000000E+00  3.83679384E-04
  6.73632194E-05  9.11960228E-05  0.00000000E+00 -4.11352392E-01 -7.66494613E-01
 -1.29633455E+00 -1.95220800E+00 -2.41696014E+00 -2.05672400E+00 -7.82621425E-01
  3.66535001E-03 -6.52713508E-05 -1.22384393E-04 -2.08212266E-04 -3.23331665E-04
 -4.29079925E-04 -4.52191341E-04 -2.80387479E-04  1.86513859E-04 -3.69026925E-02
 -7.38379990E-04  1.09517032E-04  1.05189800E-04  7.37663487E-05 -8.51436393E-05
 -8.17794478E-05 -5.73493937E-05  0.00000000E+00  0.00000000E+00  0.00000000E+00
  2.06670854E-04  2.39663428E-04  0.00000000E+00 -8.44800962E-05 -8.77521841E-05
  0.00000000E+00 -9.29224463E-04 -2.39513312E-04  1.16873777E-03 -1.54586550E-03
  0.00000000E+00  0.00000000E+00  1.27100178E-04  4.79203401E-05 -1.75020518E-04
  3.12876382E-04  0.00000000E+00  0.00000000E+00 -5.05418274E-06 -3.44928614E-04
  0.00000000E+00  1.25800846E-03  0.00000000E+00  0.00000000E+00  3.43822870E-04
 -3.28660322E-04 -2.23222620E-04  0.00000000E+00
MO  2                     OCC NO =   2.00000000 ORB. ENERGY = -15.54200750
  4.11237690E-01  7.66280883E-01  1.29597308E+00  1.95166364E+00  2.41628620E+00
  2.05615050E+00  7.82403198E-01 -3.66432797E-03  2.20641790E-04  4.13705419E-04
  7.03836009E-04  1.09298301E-03  1.45045202E-03  1.52857733E-03  9.47815459E-04
 -6.30487208E-04  3.66734309E-02  6.51622603E-04 -8.16437422E-03 -7.84178385E-03
 -5.49920012E-03  5.52367279E-04  5.30542169E-04  3.72052790E-04  0.00000000E+00
  0.00000000E+00  0.00000000E+00  1.39734916E-03 -3.17456261E-04  0.00000000E+00
 -5.85794882E-05  2.85472208E-06  0.00000000E+00  7.41515266E-04  3.69461803E-04
 -1.11097707E-03  3.74357842E-04  0.00000000E+00  0.00000000E+00 -1.48976773E-04
 -4.61273294E-05  1.95104102E-04  1.03368644E-04  0.00000000E+00  0.00000000E+00
  1.77238764E-04  1.68931041E-05  0.00000000E+00 -1.29175091E-04  0.00000000E+00
  0.00000000E+00 -1.95157868E-04 -3.36558425E-04  7.84957790E-05  0.00000000E+00
  7.32330376E-06  1.32078799E-05  1.94750112E-05  6.43771232E-05 -8.78173080E-06
  3.15471115E-06 -4.52582071E-05  0.00000000E+00 -2.35949865E-05  5.97792005E-05
  0.00000000E+00 -5.28808962E-05  1.86785030E-05  3.42023931E-05 -5.88683508E-05
  0.00000000E+00  0.00000000E+00  3.80998273E-05  7.10267407E-05  1.20047704E-04
  1.80471022E-04  2.21729502E-04  1.87286011E-04  7.06373926E-05 -3.49588398E-07
 -2.89111958E-05 -5.41308806E-05 -9.21624559E-05 -1.42561305E-04 -1.87748224E-04
 -1.95082431E-04 -1.23966127E-04  8.30792158E-05  6.48436695E-05  1.44216650E-04
  5.95200155E-05  5.58037979E-05  3.97356285E-05 -6.57682519E-05 -6.16619166E-05
 -4.39069580E-05  0.00000000E+00  0.00000000E+00  0.00000000E+00  5.71375357E-05
  1.31962845E-04  0.00000000E+00  3.59196375E-05 -8.23147943E-05  0.00000000E+00
  5.71086893E-05 -8.10605898E-06 -4.90026303E-05 -5.20685452E-05  0.00000000E+00
  0.00000000E+00  1.25303277E-05 -3.00500078E-05  1.75196800E-05  1.69530618E-04
  0.00000000E+00  0.00000000E+00 -4.51110669E-05 -8.25267321E-05  0.00000000E+00
  2.71495937E-04  0.00000000E+00  0.00000000E+00  5.94441756E-05  7.58890250E-05
 -2.39157409E-05  0.00000000E+00 -4.50068142E-06 -8.11716429E-06 -1.19687540E-05
  7.17410280E-05  2.98107294E-05 -3.14150400E-05  6.56052980E-05  0.00000000E+00
  2.04832129E-05  4.18468316E-05  0.00000000E+00  3.85778155E-05 -7.81185815E-05
  3.95407660E-05  1.19324501E-04  0.00000000E+00  0.00000000E+00  9.91524706E-05
  1.84842749E-04  3.12416808E-04  4.69664798E-04  5.77037470E-04  4.87400390E-04
  1.83829494E-04 -9.09782427E-07 -7.38994303E-05 -1.38363050E-04 -2.35574932E-04
 -3.64398599E-04 -4.79900136E-04 -4.98646981E-04 -3.16867772E-04  2.12357412E-04
 -2.97723803E-05 -1.40421177E-04  1.91784855E-04  1.79810492E-04  1.28035782E-04
 -1.41008829E-04 -1.32204740E-04 -9.41376509E-05  0.00000000E+00  0.00000000E+00
  0.00000000E+00  3.33481869E-04 -6.98741805E-04  0.00000000E+00 -6.61899076E-07
  9.31146367E-05  0.00000000E+00 -7.23693598E-05  2.39720370E-04 -1.67351011E-04
 -6.67350607E-04  0.00000000E+00  0.00000000E+00 -8.77895245E-05  1.22030111E-04
 -3.42405861E-05 -1.03555882E-04  0.00000000E+00  0.00000000E+00  8.85465170E-05
 -1.19400140E-04  0.00000000E+00  1.83247388E-04  0.00000000E+00  0.00000000E+00
 -2.95184018E-04  2.95444668E-05  1.74953033E-04  0.00000000E+00  2.75104539E-05
  4.96162365E-05  7.31591117E-05  6.68707145E-05 -3.85182837E-05 -1.33896598E-04
 -1.64500835E-04  0.00000000E+00  3.54842493E-06 -9.53115760E-05  0.00000000E+00
 -2.85366051E-05  2.26170852E-05  5.91951985E-06  2.14517052E-04  0.00000000E+00
  0.00000000E+00  2.86510535E-05  5.16733549E-05  7.61923316E-05  8.43657577E-05
 -2.39307992E-05 -1.16762395E-04  2.10623807E-04  0.00000000E+00 -3.43112182E-05
  6.91174039E-05  0.00000000E+00 -5.48872670E-05  3.55624579E-05  1.93248090E-05
 -2.53772484E-04  0.00000000E+00  0.00000000E+00  9.81261782E-05  1.82929506E-04
  3.09183091E-04  4.64803463E-04  5.71064758E-04  4.82355479E-04  1.81926740E-04
 -9.00365588E-07 -7.24784913E-05 -1.35702604E-04 -2.31045294E-04 -3.57391939E-04
 -4.70672611E-04 -4.89058991E-04 -3.10775035E-04  2.08274201E-04  9.46642277E-05
 -1.57022500E-04  3.91894190E-04  3.67425713E-04  2.61628997E-04  3.07271152E-04
  2.88086236E-04  2.05134562E-04  0.00000000E+00  0.00000000E+00  0.00000000E+00
  1.92564315E-04  5.45743137E-04  0.00000000E+00 -2.38546083E-06 -5.64121241E-05
  0.00000000E+00 -1.76187509E-06  8.87654684E-05 -8.70035933E-05  5.16755233E-04
  0.00000000E+00  0.00000000E+00 -5.49911121E-05  6.26868983E-05 -7.69578620E-06
 -2.83964853E-06  0.00000000E+00  0.00000000E+00  7.16181866E-05  1.78054348E-04
  0.00000000E+00 -4.91654274E-04  0.00000000E+00  0.00000000E+00 -3.57122518E-04
  1.42267959E-04 -4.25087687E-05  0.00000000E+00  1.45478386E-04  2.71077551E-04
  4.58460098E-04  6.90415504E-04  8.54779182E-04  7.27378506E-04  2.76780940E-04
 -1.29628322E-06 -3.69418988E-05 -6.92664057E-05 -1.17842765E-04 -1.82997372E-04
 -2.42848156E-04 -2.55928621E-04 -1.58692072E-04  1.05562027E-04  3.80779364E-05
 -1.17631908E-04  7.01022363E-05  6.73323599E-05  4.72180985E-05  1.57010864E-05
  1.50807058E-05  1.05756318E-05  0.00000000E+00  0.00000000E+00  0.00000000E+00
 -1.71201798E-06 -4.87907114E-05  0.00000000E+00  5.46841096E-05 -8.14329984E-05
  0.00000000E+00  2.04636520E-04 -7.10876217E-05 -1.33548898E-04  1.17936378E-04
  0.00000000E+00  0.00000000E+00 -1.00368393E-04  5.21006936E-05  4.82676999E-05
 -1.45668132E-04  0.00000000E+00  0.00000000E+00 -5.54343245E-05  8.06415933E-05
  0.00000000E+00 -2.69269763E-04  0.00000000E+00  0.00000000E+00  7.08618953E-05
  9.54410781E-05  2.73449835E-05  0.00000000E+00
MO  3                     OCC NO =   2.00000000 ORB. ENERGY = -11.29477464
  2.74268104E-04  5.11058226E-04  8.64327582E-04  1.30162944E-03  1.61150169E-03
  1.37131521E-03  5.21810735E-04 -2.44386229E-06 -7.86861905E-05 -1.47537343E-04
 -2.51004918E-04 -3.89784134E-04 -5.17266217E-04 -5.45127588E-04 -3.38013881E-04
  2.24846964E-04 -2.05341797E-04 -1.81105622E-06  6.51330588E-04  6.25595244E-04
  4.38710567E-04  1.10991184E-03  1.06605705E-03  7.47592791E-04  0.00000000E+00
  0.00000000E+00  0.00000000E+00 -2.04021300E-04 -6.69920915E-04  0.00000000E+00
  4.73661879E-05 -1.47482077E-04  0.00000000E+00  7.73702078E-05  2.78700311E-04
 -3.56070518E-04  4.57770851E-04  0.00000000E+00  0.00000000E+00 -1.41873113E-05
  5.68391719E-05 -4.26518606E-05  4.64174274E-04  0.00000000E+00  0.00000000E+00
  1.42820471E-04 -2.83697780E-05  0.00000000E+00 -2.49710328E-04  0.00000000E+00
  0.00000000E+00 -6.20942872E-04  1.92481459E-04  3.34819662E-04  0.00000000E+00
  1.10734682E-05  1.99714560E-05  2.94479002E-05  3.55759362E-05 -2.98826179E-05
 -1.59023514E-05 -1.03434432E-04  0.00000000E+00  1.67938529E-04 -8.28666140E-05
  0.00000000E+00  1.71973519E-04 -1.59996852E-04 -1.19766669E-05 -2.50511922E-04
  0.00000000E+00  0.00000000E+00  2.26657622E-04  4.22541342E-04  7.14169304E-04
  1.07363040E-03  1.31907899E-03  1.11417308E-03  4.20225092E-04 -2.07971743E-06
 -3.16317053E-05 -5.92245327E-05 -1.00834834E-04 -1.55976156E-04 -2.05415111E-04
 -2.13439458E-04 -1.35631194E-04  9.08968722E-05  7.47326819E-05  6.68077276E-05
 -8.69973897E-06 -8.15655827E-06 -5.80795540E-06  4.77807710E-05  4.47975099E-05
  3.18984958E-05  0.00000000E+00  0.00000000E+00  0.00000000E+00  1.85002386E-04
 -4.82093982E-04  0.00000000E+00  7.61549365E-05 -6.10806154E-05  0.00000000E+00
 -2.07942131E-05  1.16146850E-04 -9.53526369E-05 -1.79508093E-04  0.00000000E+00
  0.00000000E+00 -8.48268213E-05  3.20048140E-05  5.28220073E-05 -4.73081587E-05
  0.00000000E+00  0.00000000E+00 -2.08115001E-05  1.49553852E-05  0.00000000E+00
  1.00265669E-05  0.00000000E+00  0.00000000E+00  6.66839773E-05 -4.24947710E-06
 -5.48927225E-05  0.00000000E+00 -9.37185525E-06 -1.69025269E-05 -2.49227660E-05
  2.63269661E-04  6.39094496E-05  2.20164084E-05 -8.72568622E-06  0.00000000E+00
  1.08725679E-04 -1.24856507E-04  0.00000000E+00  1.34900123E-05  2.54811359E-05
 -3.89711483E-05 -4.58074785E-05  0.00000000E+00  0.00000000E+00  1.29304708E-04
  2.41053374E-04  4.07422667E-04  6.12489725E-04  7.52514395E-04  6.35618705E-04
  2.39731989E-04 -1.18644699E-06 -4.31212221E-05 -8.07365333E-05 -1.37460856E-04
 -2.12631043E-04 -2.80027603E-04 -2.90966616E-04 -1.84896223E-04  1.23913149E-04
  9.57181359E-05 -1.52912677E-04 -4.45690305E-05 -4.17862990E-05 -2.97543342E-05
 -6.58091996E-05 -6.17003077E-05 -4.39342947E-05  0.00000000E+00  0.00000000E+00
  0.00000000E+00 -1.06634244E-05 -2.73668599E-04  0.00000000E+00  3.54382570E-05
  6.90397162E-06  0.00000000E+00 -7.31672187E-05  2.16798891E-04 -1.43631672E-04
  1.47106973E-04  0.00000000E+00  0.00000000E+00  7.19912173E-05 -1.31991588E-04
  6.00003708E-05 -3.14694437E-04  0.00000000E+00  0.00000000E+00 -6.40339372E-05
  7.34781837E-05  0.00000000E+00 -1.15274063E-04  0.00000000E+00  0.00000000E+00
  2.04263825E-04 -1.21620140E-05 -1.05160488E-04  0.00000000E+00 -4.21527451E-06
 -7.60242117E-06 -1.12097656E-05  3.42599164E-04  7.39609359E-06  6.88450737E-05
  8.06341707E-05  0.00000000E+00 -4.21737967E-05 -1.72747890E-04  0.00000000E+00
 -2.47955191E-05 -1.64610760E-05  4.12565951E-05 -1.06005412E-04  0.00000000E+00
  0.00000000E+00 -2.01421027E-05 -3.63271117E-05 -5.35643050E-05 -4.10033123E-04
  1.24269196E-04 -1.76068411E-04  8.50418501E-04  0.00000000E+00  4.28597744E-05
 -1.85870765E-04  0.00000000E+00 -3.19362703E-04  4.79954623E-04 -1.60591920E-04
 -3.30340907E-04  0.00000000E+00  0.00000000E+00 -3.27004788E-01 -6.09611275E-01
 -1.03035045E+00 -1.54895422E+00 -1.90306923E+00 -1.60744619E+00 -6.06269561E-01
  3.00046189E-03  1.55702178E-04  2.91523604E-04  4.96343879E-04  7.67768510E-04
  1.01112412E-03  1.05062273E-03  6.67623578E-04 -4.47425797E-04 -2.72908851E-02
 -1.99725766E-04  1.76314967E-03  1.65306489E-03  1.17708068E-03 -1.89563631E-04
 -1.77727954E-04 -1.26552891E-04  0.00000000E+00  0.00000000E+00  0.00000000E+00
 -4.65594175E-04 -4.63235036E-04  0.00000000E+00 -8.89298544E-05  1.06742128E-04
  0.00000000E+00 -4.49339967E-04 -1.12334477E-03  1.57268474E-03  3.43048439E-05
  0.00000000E+00  0.00000000E+00 -1.38024965E-04  1.92037771E-04 -5.40128057E-05
 -4.17316933E-04  0.00000000E+00  0.00000000E+00  4.02638572E-04  4.03486145E-04
  0.00000000E+00 -1.23061206E-03  0.00000000E+00  0.00000000E+00 -1.37850585E-03
  1.70590129E-04  2.01536206E-05  0.00000000E+00  1.30359452E-04  2.42905644E-04
  4.10814340E-04  6.18663632E-04  7.65945710E-04  6.51785231E-04  2.48016304E-04
 -1.16156616E-06 -3.06974463E-07 -5.75579988E-07 -9.79232814E-07 -1.52064517E-06
 -2.01798458E-06 -2.12667874E-06 -1.31867649E-06  8.77184109E-07 -1.81843998E-04
 -5.12359687E-04 -1.00632419E-03 -9.66562358E-04 -6.77820243E-04  6.28392288E-04
  6.03563281E-04  4.23260234E-04  0.00000000E+00  0.00000000E+00  0.00000000E+00
  2.33079835E-05 -2.40082348E-04  0.00000000E+00 -2.24327736E-04 -9.49486565E-05
  0.00000000E+00  7.94613988E-05  2.01281871E-04 -2.80743270E-04  2.45555573E-04
  0.00000000E+00  0.00000000E+00  1.95429519E-04 -2.25349188E-04  2.99196684E-05
 -5.16263141E-04  0.00000000E+00  0.00000000E+00  1.88676461E-04  2.70008527E-04
  0.00000000E+00 -1.05087024E-03  0.00000000E+00  0.00000000E+00 -9.18273661E-05
 -4.74202017E-04  2.40844660E-04  0.00000000E+00
MO  4                     OCC NO =   2.00000000 ORB. ENERGY = -11.25716727
  7.97956252E-05  1.48687398E-04  2.51467666E-04  3.78696370E-04  4.68850673E-04
  3.98970763E-04  1.51815735E-04 -7.11017856E-07 -5.42471043E-05 -1.01713828E-04
 -1.73045484E-04 -2.68721366E-04 -3.56608882E-04 -3.75816810E-04 -2.33030397E-04
  1.55011910E-04 -7.23032702E-07 -2.84660932E-04  1.12877366E-04  1.08417361E-04
  7.60297368E-05 -1.77749267E-04 -1.70726046E-04 -1.19724888E-04  0.00000000E+00
  0.00000000E+00  0.00000000E+00 -1.97245767E-04  2.03467134E-04  0.00000000E+00
  7.83866188E-05 -2.22487548E-05  0.00000000E+00  6.60229907E-05  4.37423856E-05
 -1.09765376E-04  6.90965861E-05  0.00000000E+00  0.00000000E+00  8.10988974E-05
 -1.47623573E-04  6.65246753E-05 -2.01560497E-04  0.00000000E+00  0.00000000E+00
 -4.25989443E-05 -7.52045241E-06  0.00000000E+00  7.34142715E-05  0.00000000E+00
  0.00000000E+00  2.54259030E-04 -1.26462197E-04 -5.08529143E-05  0.00000000E+00
  1.25863975E-05  2.27000862E-05  3.34712638E-05 -2.68852843E-06 -3.48482287E-05
 -1.22996278E-04 -4.40931310E-06  0.00000000E+00  1.31999432E-06  1.11755203E-04
  0.00000000E+00 -1.76832712E-04  1.64035267E-04  1.27974451E-05 -1.96795055E-05
  0.00000000E+00  0.00000000E+00 -3.26747133E-01 -6.09130947E-01 -1.02953861E+00
 -1.54773376E+00 -1.90156975E+00 -1.60617965E+00 -6.05791867E-01  2.99809776E-03
  1.72593282E-04  3.23149081E-04  5.50188960E-04  8.51058662E-04  1.12081432E-03
  1.16459787E-03  7.40049667E-04 -4.95964077E-04 -2.74895730E-02 -4.46307038E-04
  1.42767505E-03  1.33853611E-03  9.53117452E-04  2.25609696E-03  2.11523430E-03
  1.50617283E-03  0.00000000E+00  0.00000000E+00  0.00000000E+00 -1.17091957E-03
 -5.17400955E-04  0.00000000E+00 -5.22698126E-05 -4.72275499E-05  0.00000000E+00
 -1.00490532E-03 -5.17093793E-04  1.52199911E-03  9.35867496E-04  0.00000000E+00
  0.00000000E+00 -8.40952511E-05  1.74903825E-04 -9.08085734E-05 -9.49171245E-04
  0.00000000E+00  0.00000000E+00 -3.19119666E-04  4.29402404E-04  0.00000000E+00
 -1.49224562E-03  0.00000000E+00  0.00000000E+00  8.95903889E-04  6.14551079E-05
  2.04038411E-04  0.00000000E+00 -3.07307080E-05 -5.54240974E-05 -8.17227992E-05
 -7.52155006E-04  6.52152358E-05  6.95984956E-04 -5.06867054E-04  0.00000000E+00
 -2.66752242E-04  1.86535071E-04  0.00000000E+00  2.60050056E-04 -2.06070804E-05
 -2.39442976E-04 -8.46253276E-04  0.00000000E+00  0.00000000E+00 -1.23266669E-02
 -2.29797097E-02 -3.88397575E-02 -5.83888780E-02 -7.17374829E-02 -6.05937724E-02
 -2.28537415E-02  1.13104442E-04 -9.45130198E-05 -1.76958194E-04 -3.01286466E-04
 -4.66044351E-04 -6.13764015E-04 -6.37740126E-04 -4.05255221E-04  2.71592625E-04
 -1.15316613E-03  1.61677792E-04  6.83896640E-04  6.41196571E-04  4.56570156E-04
  7.99896003E-05  7.49953348E-05  5.34011460E-05  0.00000000E+00  0.00000000E+00
  0.00000000E+00 -9.12063474E-04 -1.78238885E-04  0.00000000E+00 -9.53080928E-05
 -5.60950177E-05  0.00000000E+00  5.21019282E-04 -1.88697889E-04 -3.32321392E-04
  2.09729337E-04  0.00000000E+00  0.00000000E+00  3.74078924E-04 -3.81379536E-04
  7.30061192E-06 -2.29818333E-04  0.00000000E+00  0.00000000E+00 -2.70823850E-04
  2.31244227E-05  0.00000000E+00 -7.40978482E-05  0.00000000E+00  0.00000000E+00
  4.98515195E-04  3.13956356E-04  4.72458015E-06  0.00000000E+00  1.01319968E-06
  1.82734734E-06  2.69442259E-06  5.85885737E-04  4.95864680E-05 -1.00587694E-05
  1.68579669E-05  0.00000000E+00 -1.98021079E-04 -2.46299722E-04  0.00000000E+00
  1.44976519E-05 -3.54161815E-05  2.09185296E-05  1.72231455E-04  0.00000000E+00
  0.00000000E+00 -1.05798327E-05 -1.90811639E-05 -2.81351650E-05  4.13278310E-04
  8.38758741E-05 -8.49660498E-06  8.71464775E-06  0.00000000E+00 -5.00593629E-05
  2.11679157E-04  0.00000000E+00 -2.43922603E-05  3.62129848E-05 -1.18207245E-05
 -1.96209435E-05  0.00000000E+00  0.00000000E+00 -1.38482448E-04 -2.58162768E-04